% Model:              Membran2D3D25membranethickness.mph
% Version:            COMSOL 5.6.0.401
% Date:               Jan 4 2025, 21:24
% Dimension:          2
% Nodes:              251
% Expressions:        1
% Description:        Displacement field, Z component
% Length unit:        µm
% cpl1x                   cpl1y                    w (µm) @ memb_thick=2.5, edge_width=200, m_stylus=5, circ_pos=40
29.69294067321811         29.69294067321811        -0.04806192992822066
29.817903695288635        29.817903695288635       -0.04794715153721845
30.081745164124346        30.081745164124346       -0.047707229665551916
29.535462557113107        29.535462557113107       -0.04820364857013945
29.400332872732637        29.400332872732637       -0.04831745833704368
-499.9999999999999        -499.9999999999999       0
-461.2067152521843        -461.20671525218427      -7.106202481544254E-7
-452.4204553688842        -452.4204553688841       -5.991570624940371E-7
-431.5447876735226        -431.5447876735226       -8.983521910283733E-7
-404.838991288963         -404.83899128896303      -8.717245605174462E-7
-401.64570269430715       -401.64570269430715      -8.435284786007537E-7
-399.493919985778         -399.493919985778        -8.302178747196559E-7
-359.00585409924906       -359.00585409924906      -8.917660202455992E-7
-348.6244860021648        -348.6244860021649       -8.824500416327399E-7
-300.39085057594815       -300.3908505759482       -8.860116966950169E-7
-299.4376540979375        -299.4376540979375       -8.857124998093464E-7
-298.53403657094134       -298.5340365709413       -8.855182774022966E-7
-250.3955045841206        -250.3955045841206       -8.868801861862809E-7
-225.57002030629616       -225.57002030629616      -8.838207051546541E-7
-171.4324416577674        -171.4324416577674       -8.665956900098076E-7
-161.32303123321648       -161.3230312332165       -8.585435085373612E-7
-196.98364707219895       -196.98364707219892      -8.793674740946589E-7
-151.6015142324374        -151.6015142324374       -8.439234614107088E-7
-129.30148155078248       -129.30148155078246      -7.838280023624686E-7
-118.28947935252698       -118.28947935252697      -7.415013306722562E-7
-111.81880255172229       -111.81880255172227      -7.194935280750493E-7
-106.57061237712182       -106.57061237712182      -7.17897589796517E-7
-100.32237682104025       -100.32237682104025      -7.490911034505782E-7
-94.78850254371831        -94.78850254371831       -8.534972609120211E-7
-89.49706506247321        -89.49706506247321       -1.0905974960702629E-6
-84.53306774855172        -84.5330677485517        -1.6211900760630203E-6
-82.77014234899576        -82.77014234899575       -1.931919882871597E-6
-79.85231213485308        -79.85231213485308       -2.824773215289643E-6
-77.7946544699767         -77.7946544699767        -3.852658793910686E-6
499.9999999999999         499.9999999999999        3.999679060058162E-37
462.11904772907565        462.11904772907576       -8.005410916940864E-7
-76.7860734527808         -76.78607345278081       -4.5984375932114925E-6
-74.22390061014687        -74.22390061014687       -8.276014664506963E-6
450.06561853961955        450.06561853961944       -6.757434689028363E-7
433.09829522028224        433.09829522028224       -8.902201538474677E-7
-73.22811710475948        -73.22811710475948       -1.1228020041247646E-5
-72.31220481973702        -72.31220481973702       -1.5927335182081707E-5
406.86833040814145        406.86833040814133       -8.47251021357223E-7
404.8685821449764         404.8685821449763        -8.237738822700712E-7
-70.69065173831274        -70.69065173831254       -4.3578271324137916E-5
402.7970809398303         402.79708093983027       -8.18925504230698E-7
373.445285961653          373.445285961653         -9.00111589337297E-7
353.2174518048988         353.21745180489893       -8.887556153515835E-7
-69.67180369311583        -69.67180369311585       -9.141975301060007E-5
330.6845660527718         330.68456605277186       -8.882742286617028E-7
306.9665897844655         306.96658978446555       -8.916321447082864E-7
-68.87794550936538        -68.87794550936539       -1.4896641990631615E-4
-68.65459713144367        -68.65459713144368       -1.6820838930459587E-4
277.27954199079113        277.27954199079113       -8.903928402977264E-7
275.1343562166617         275.1343562166617        -8.90390231396545E-7
-68.45557116086245        -68.45557116086246       -1.8643199670232035E-4
-67.64809165848172        -67.64809165848172       -2.7068220180356703E-4
270.08221772482705        270.08221772482705       -8.910113625141371E-7
243.58141080393062        243.58141080393068       -8.93464713757436E-7
228.66189643082922        228.66189643082922       -8.949858036055382E-7
-66.95912454601854        -66.95912454601854       -3.5543862339990567E-4
-66.47185111929412        -66.47185111929412       -4.223733316126197E-4
203.27116418625457        203.27116418625454       -8.936970454007568E-7
168.03406112212005        168.03406112212005       -8.204778448080136E-7
-65.38519756473944        -65.38519756473943       -5.919135504126986E-4
-65.30155886153358        -65.30155886153356       -6.061130440968723E-4
-65.26960739522548        -65.26960739522546       -6.115794021205293E-4
158.21468719898039        158.2146871989804        -7.604043403531606E-7
138.39434708774576        138.39434708774576       -6.049688996693557E-7
129.7278669889557         129.7278669889557        -6.215583915118118E-7
-63.689770172927524       -63.68977017292754       -9.103638183241019E-4
-63.47295767527767        -63.47295767527768       -9.556967700163195E-4
116.03316678444361        116.03316678444362       -1.1037768751924963E-6
107.58898346204384        107.58898346204384       -2.11193853023623E-6
-63.04929570319017        -63.04929570319018       -0.00104720049134034
-61.457543254367465       -61.45754325436746       -0.0014244206297363915
100.43680637253543        100.43680637253541       -3.882423507279348E-6
96.4231719498061          96.42317194980612        -5.4763144167242184E-6
-59.990112765874          -59.990112765874         -0.0018175862231943757
-59.28788392145027        -59.28788392145027       -0.0020206210102348614
92.40713233099709         92.40713233099709        -7.778916043652224E-6
88.68456631592431         88.68456631592431        -1.086569698688978E-5
-58.57845496567847        -58.578454965678475      -0.002235175900948531
-57.24712819716386        -57.24712819716386       -0.002662623273470889
84.24559039504996         84.24559039504994        -1.6720036582236222E-5
82.73599721140184         82.73599721140182        -1.9486329399949763E-5
-56.19131896831476        -56.19131896831476       -0.003024063208414261
-55.08366814378093        -55.08366814378093       -0.0034238734690548783
80.10086890691696         80.10086890691694        -2.6340400511637613E-5
77.84700151896362         77.84700151896362        -3.5010324894450595E-5
-53.43968316280586        -53.439683162805856      -0.004054649113875667
-52.5083434290647         -52.508343429064695      -0.004431349530163557
76.73243005239036         76.73243005239037        -4.096083883492876E-5
74.08036955253587         74.08036955253587        -6.627917327794762E-5
-50.39392832059583        -50.393928320595826      -0.005335516682922791
-49.42483424860485        -49.42483424860486       -0.005772235987655068
73.02494410702587         73.02494410702587        -8.605972127486087E-5
72.2249151693118          72.2249151693118         -1.1058036243032616E-4
-48.37399520867676        -48.37399520867677       -0.006260943168966734
-46.28908124019574        -46.28908124019574       -0.00727505699936987
70.69065173831274         70.69065173831247        -2.3894581512603778E-4
-43.666269447128656       -43.66626944712867       -0.00863153340526466
-43.08563914806849        -43.0856391480685        -0.008943930831538984
69.66057311394903         69.66057311394903        -4.545664026272396E-4
-41.49064627398521        -41.49064627398522       -0.009821985512923459
-39.59715421966695        -39.59715421966695       -0.01090268051492681
68.82377249263584         68.82377249263584        -7.204775307625618E-4
68.6675019806161          68.6675019806161         -7.786248196516157E-4
-38.79762960570433        -38.79762960570433       -0.011371568394124695
-36.24134753020367        -36.241347530203676      -0.012914745943299472
68.51145196295577         68.51145196295577        -8.39194761126281E-4
67.6228308421704          67.62283084217042        -0.0012309591809095434
-33.727021026607645       -33.72702102660765       -0.014497220797332953
-32.182549639132176       -32.18254963913218       -0.015499754702155004
66.82826860055357         66.82826860055357        -0.001646819370911027
66.44354393630658         66.44354393630658        -0.001869574220555081
-28.63129275071597        -28.631292750715968      -0.01788203367169531
-27.94298259335288        -27.94298259335288       -0.018356645532883596
65.80203110988975         65.80203110988975        -0.002270693556435479
65.24660950839296         65.24660950839296        -0.0026471334800998144
64.84038557924693         64.84038557924694        -0.0029391687666863973
-25.331353738916146       -25.33135373891615       -0.020186059178949303
-23.8382546508358         -23.8382546508358        -0.021253525833089794
63.67119586726902         63.67119586726902        -0.0038539241354155966
62.6298553200686          62.6298553200686         -0.004756983383647322
-23.389228489593094       -23.389228489593098      -0.021578767440847583
-18.939562820981685       -18.939562820981685      -0.024847102728038296
61.677753843609466        61.67775384360945        -0.005650435870205475
60.903615550067116        60.90361555006711        -0.006421829174549238
-16.572659086190534       -16.572659086190534      -0.02662544655343718
-13.05558738571714        -13.05558738571714       -0.029294293282414098
59.76398673234114         59.76398673234113        -0.007625672450113043
58.548030395787826        58.54803039578783        -0.008993289098427098
-8.476371059493081        -8.476371059493081       -0.03279282501724479
-7.882062411433377        -7.882062411433377       -0.03324794450259245
-7.386334119853589        -7.386334119853589       -0.033626998072330536
57.25012079059282         57.25012079059282        -0.010539243569640026
56.001148244127634        56.001148244127634       -0.012102658575208168
-3.1424982258971395       -3.1424982258971386      -0.03682899737122776
-2.7363385682049524       -2.736338568204951       -0.03713238450966558
54.714929975881866        54.71492997588187        -0.013781942866163506
53.28788237167284         53.287882371672836       -0.015716726884966305
0.5397617780173317        0.539761778017332        -0.03952725127846823
1.555409933479559         1.5554099334795592       -0.0402524081453688
51.1186959122111          51.1186959122111         -0.018777209734119702
50.64873921752632         50.64873921752632        -0.019456957636159133
3.9478594419526853        3.9478594419526853       -0.041912123540288865
5.283486274640969         5.283486274640969        -0.04280712867582549
50.356179327102716        50.356179327102716       -0.019882836355498455
48.005878770493155        48.005878770493155       -0.023353315079226035
46.40073432585547         46.40073432585547        -0.025763365126434953
45.93042966937676         45.93042966937676        -0.02647365185942317
6.873927182063904         6.873927182063904        -0.04383638881024873
8.543623530708585         8.543623530708585        -0.04486835475887681
44.1193919472454          44.1193919472454         -0.029208997296340772
44.75776992749998         44.75776992749998        -0.028244865702259793
9.574043470144774         9.574043470144774        -0.04547776291508747
11.280083458593671        11.28008345859367        -0.0464323370367948
43.95202199118566         43.95202199118566        -0.029461809576684768
42.51905614226908         42.51905614226908        -0.03161655480550567
11.924389810011963        11.92438981001196        -0.04677463690100852
13.834783552910237        13.834783552910235       -0.04771880926433771
42.46378105804691         42.46378105804691        -0.031699435207482224
42.19676800754785         42.19676800754785        -0.03209886236794154
41.115353709415906        41.115353709415906       -0.03370623208247929
40.85270016928563         40.852700169285626       -0.03409412445206175
14.055782052392876        14.055782052392875       -0.04782128193219014
15.19774408836258         15.197744088362574       -0.048323030264849
15.841432644113098        15.841432644113093       -0.04858591502672651
15.990640332398316        15.99064033239831        -0.048644876849207395
39.67761572456378         39.67761572456377        -0.03581162599576056
39.27784537635457         39.27784537635456        -0.036389129430565
17.509995938682955        17.509995938682955       -0.04919306707169274
18.0467255983771          18.0467255983771         -0.0493638903652916
38.306194116021544        38.30619411602154        -0.03777405261406157
37.88184332518853         37.88184332518853        -0.03837022201028773
18.61985325179768         18.619853251797682       -0.04953197218951968
19.28716074736452         19.28716074736452        -0.04970792903596263
20.166943909866305        20.166943909866305       -0.049905813428443684
20.28955288448642         20.28955288448642        -0.04993020977971572
37.01904984915077         37.01904984915076        -0.03956284460840288
36.654718090152556        36.65471809015255        -0.04005834013705085
20.569106063848842        20.569106063848846       -0.0499826318615454
21.052001755587003        21.052001755587003       -0.05006276694231288
35.870683271107595        35.87068327110759        -0.04110524864134488
35.568993022882005        35.568993022882          -0.04150103878310369
21.26560231592285         21.26560231592285        -0.05009392287006837
21.695132580515462        21.695132580515462       -0.050148202231631946
34.90446430432604         34.90446430432604        -0.042356669225054946
34.59504623129431         34.59504623129431        -0.042747427591770686
22.352844172231023        22.352844172231027       -0.05020888189314343
22.44984123738879         22.44984123738879        -0.050215495881956784
22.184769816476518        22.184769816476518       -0.05019601880362537
33.95952218554253         33.95952218554253        -0.04353295645499265
33.6417837548003          33.6417837548003         -0.04391679110167627
22.9506692913917          22.950669291391705       -0.05023914962182607
23.110920211173855        23.110920211173855       -0.05024304971387382
33.1303840504014          33.1303840504014         -0.04452099071620563
32.94093642494548         32.94093642494548        -0.04474046748152792
32.79330012334183         32.79330012334184        -0.044909787411570465
23.15623725514548         23.156237255145484       -0.05024383092506063
23.641252942446904        23.641252942446904       -0.05024255754446386
32.40303223683497         32.40303223683497        -0.0453496532335678
31.995825170209248        31.99582517020924        -0.045796439325533525
24.004427430924935        24.004427430924935       -0.050229916680909495
24.1232358339292          24.123235833929197       -0.0502235559822939
31.931222362311825        31.931222362311814       -0.04586616263609359
31.5410430499735          31.54104304997351        -0.04627980189590915
31.75068581421878         31.750685814218784       -0.04605912143109574
24.3254810103466          24.325481010346603       -0.05021006325418288
24.580330221797034        24.580330221797034       -0.050188245598669134
31.44831949952677         31.44831949952678        -0.04637622821972893
31.200894086897346        31.20089408689735        -0.04662984066101561
24.72939276849857         24.729392768498574       -0.05017295683458011
25.004940268604493        25.004940268604496       -0.0501395599002798
30.955361896947544        30.95536189694755        -0.0468760881419033
30.886152574695           30.886152574695007       -0.0469445085679397
25.316948622420362        25.316948622420366       -0.050093507317615804
25.34832014706894         25.348320147068943       -0.05008839155419699
30.783139319038902        30.783139319038906       -0.04704551059366545
30.57608186565275         30.576081865652753       -0.04724551427493637
30.506244973292393        30.506244973292397       -0.04731208014567732
25.40465503869582         25.404655038695825       -0.05007895897560563
25.667145393870925        25.667145393870925       -0.05003102060283285
30.206137189765883        30.206137189765883       -0.047593000648931245
25.88209129728799         25.88209129728799        -0.049986826104333616
25.94219007139953         25.942190071399523       -0.049973667622652075
25.978043705700255        25.97804370570025        -0.04996565820561722
26.20601828258833         26.206018282588325       -0.04991175511501749
26.472532563815307        26.472532563815307       -0.04984271676774318
26.472667050565494        26.472667050565498       -0.049842680426268035
26.472797734568527        26.472797734568527       -0.049842645005320534
26.69653582146635         26.696535821466348       -0.04978082529120435
26.870057712219626        26.87005765832407        -0.04973454495068292
29.24530963448287         29.245309634482865       -0.048442909156496065
29.15207980782221         29.152079807822208       -0.04851578675036223
29.106465789828583        29.106465789828576       -0.04855074209451772
28.874428819146928        28.874428819146928       -0.04872196279928216
28.733563807050047        28.733563807050047       -0.048820506911341946
27.04417974828212         27.04417974828212        -0.049684237275302294
28.54824209193979         28.54824209193979        -0.04894397247603029
28.350325857922357        28.350325857922357       -0.04906808358343242
27.194812752235364        27.194812752235364       -0.049632028287794984
27.2678184056592          27.2678184056592         -0.04960470815481749
27.354438070026045        27.354438070026042       -0.04957076270069837
28.158647255882833        28.158647255882833       -0.04918064741489089
28.045538727110255        28.045538727110255       -0.049243547571827764
27.775213327483762        27.77521332748376        -0.04938326525529916
27.837241017048267        27.837241017048267       -0.049352528714309535
27.678645740906127        27.678645740906127       -0.04942954942348555
27.512353051433386        27.512353051433386       -0.049504735041666095
