% Model:              Membran2D3D25membranethickness.mph
% Version:            COMSOL 5.6.0.401
% Date:               Jan 4 2025, 21:24
% Dimension:          2
% Nodes:              252
% Expressions:        1
% Description:        Displacement field, Z component
% Length unit:        µm
% cpl1x                   cpl1y                    w (µm) @ memb_thick=2.5, edge_width=200, m_stylus=5, circ_pos=20
15.550805049487165        15.550805049487163       -0.06141442396898217
15.636584274565628        15.636584274565628       -0.06135847777175167
15.851082289708017        15.851082289708017       -0.061221660127935014
15.393333304726765        15.393333304726763       -0.06151304741216975
15.258169974763783        15.258169974763781       -0.06158984734260316
-499.9999999999999        -499.9999999999999       0
-461.2067152521843        -461.20671525218427      -7.106277253675407E-7
-452.4204553688842        -452.4204553688841       -5.99165466670801E-7
-431.5447876735226        -431.5447876735226       -8.98365032151729E-7
-404.838991288963         -404.838991288963        -8.717459115909025E-7
-401.64570269430715       -401.6457026943071       -8.435509968090732E-7
-399.493919985778         -399.493919985778        -8.302414379017865E-7
-359.00585409924906       -359.00585409924906      -8.918210619908493E-7
-348.6244860021648        -348.6244860021649       -8.82516627411844E-7
-300.39085057594815       -300.3908505759482       -8.862039790647038E-7
-299.4376540979375        -299.4376540979375       -8.859079880420055E-7
-298.53403657094134       -298.5340365709413       -8.857190539802125E-7
-250.3955045841206        -250.3955045841206       -8.874853389230599E-7
-225.57002030629616       -225.57002030629616      -8.850538955998305E-7
499.9999999999999         499.9999999999999        1.1998928241086986E-36
462.11904772907565        462.1190477290757        -8.00514085861476E-7
-171.4324416577674        -171.4324416577674       -8.599782589991087E-7
-161.32303123321648       -161.3230312332165       -8.44116286356892E-7
-196.98364707219895       -196.98364707219892      -8.80208131672257E-7
450.06561853961955        450.0656185396195        -6.757116781104362E-7
433.09829522028224        433.09829522028224       -8.901757643622872E-7
-151.6015142324374        -151.6015142324374       -8.185914183023669E-7
-129.30148155078248       -129.30148155078246      -7.410687729360987E-7
406.8683304081414         406.86833040814133       -8.471770796104396E-7
404.86858214497636        404.86858214497636       -8.236975085287434E-7
-118.28947935252698       -118.28947935252697      -7.43151692547486E-7
-111.81880255172229       -111.81880255172227      -7.885708656158456E-7
402.7970809398303         402.79708093983027       -8.18845286520392E-7
373.445285961653          373.445285961653         -8.999677241651353E-7
353.2174518048988         353.21745180489893       -8.885259473397193E-7
-106.57061237712182       -106.57061237712182      -8.943889749694774E-7
-100.32237682104027       -100.32237682104025      -1.1363310855329123E-6
330.6845660527718         330.68456605277186       -8.878973935940295E-7
306.9665897844655         306.96658978446555       -8.909987664482605E-7
-94.78850254371831        -94.7885025437183        -1.5616474620442274E-6
-89.49706506247321        -89.49706506247321       -2.3027427180734167E-6
277.27954199079113        277.27954199079113       -8.890986777461506E-7
275.1343562166617         275.1343562166617        -8.890397896877357E-7
-84.53306774855172        -84.5330677485517        -3.6651184863275267E-6
-82.77014234899576        -82.77014234899575       -4.4031914603813905E-6
270.08221772482705        270.08221772482705       -8.894488403048342E-7
243.58141080393062        243.58141080393065       -8.905734960775544E-7
228.66189643082922        228.66189643082922       -8.90561062174542E-7
-79.85231213485308        -79.85231213485308       -6.35599903325428E-6
-77.7946544699767         -77.7946544699767        -8.492014889570492E-6
-74.22390061014687        -74.22390061014687       -1.6953714214278165E-5
-76.7860734527808         -76.78607345278081       -9.985354809175264E-6
203.27116418625454        203.27116418625457       -8.880550380450998E-7
168.03406112212005        168.03406112212005       -8.311374481231586E-7
-72.31220481973702        -72.31220481973702       -3.062480911339984E-5
-73.22811710475948        -73.22811710475948       -2.2310980403639543E-5
158.21468719898039        158.2146871989804        -7.852233227189071E-7
138.39434708774576        138.39434708774576       -6.55709304611489E-7
129.72786698895567        129.7278669889557        -6.43874843768305E-7
-70.69065173831274        -70.69065173831254       -7.763409645810745E-5
116.0331667844436         116.03316678444364       -9.080952900413808E-7
107.58898346204384        107.58898346204384       -1.5307158325710112E-6
-69.7064931659441         -69.7064931659441        -1.541343481119943E-4
100.43680637253543        100.43680637253541       -2.6679793289539316E-6
96.4231719498061          96.42317194980612        -3.712002578679834E-6
-68.7791382629307         -68.7791382629307        -2.673631070091347E-4
-68.6922376999005         -68.6922376999005        -2.7992903090444447E-4
92.40713233099709         92.40713233099709        -5.242375901123448E-6
88.68456631592431         88.68456631592431        -7.320837853010581E-6
-68.58690983204988        -68.58690983204988       -2.955782051187643E-4
-67.5936849673392         -67.59368496733919       -4.658777990655201E-4
84.24559039504996         84.24559039504994        -1.1328666280161966E-5
82.73599721140184         82.73599721140182        -1.3239765332470805E-5
-66.49577931315633        -66.49577931315633       -7.008878132244473E-4
-66.39304924719235        -66.39304924719235       -7.253364218313703E-4
80.10086890691696         80.10086890691694        -1.8039956995502105E-5
77.84700151896362         77.84700151896362        -2.417902082592997E-5
-66.25926112700802        -66.25926112700802       -7.577886032236605E-4
-65.24433866579791        -65.24433866579791       -0.0010261552715732862
76.73243005239036         76.73243005239037        -2.843312734726686E-5
74.08036955253587         74.08036955253587        -4.690295059696625E-5
-64.34287180696606        -64.34287180696606       -0.001296752796148983
-63.55379176633622        -63.55379176633621       -0.0015576934762161555
73.02494410702587         73.02494410702589        -6.161819290368873E-5
72.2249151693118          72.2249151693118         -8.009044655653155E-5
-62.46875325939483        -62.46875325939482       -0.0019518847184197595
-61.846167768633116       -61.84616776863312       -0.0021960854230559245
70.69065173831274         70.69065173831247        -1.7900095391792353E-4
-60.97252727123332        -60.97252727123332       -0.0025600740615512934
-60.23753874018164        -60.23753874018164       -0.002885125884779004
69.69432880852494         69.69432880852494        -3.4021332874940006E-4
-59.92879526460871        -59.92879526460871       -0.0030267457637782476
-58.33960721943299        -58.33960721943299       -0.0038007557620384777
68.76672888112613         68.76672888112611        -5.726228231083463E-4
68.67850470602907         68.67850470602907        -5.986588600343397E-4
-57.09411126207442        -57.09411126207442       -0.004458659839374937
-55.68460606254162        -55.68460606254162       -0.005254745072815282
68.59115014554838         68.59115014554837        -6.250574382180828E-4
67.64685924683593         67.64685924683592        -9.501564412858963E-4
-53.41630644620743        -53.41630644620743       -0.006643955353882386
-52.64497682136737        -52.644976821367365      -0.007145746173149273
67.0029873185887          67.00298731858871        -0.00121273145257988
66.80407367857441         66.80407367857441        -0.0013003789999397907
-51.80328379717052        -51.80328379717052       -0.007709293709976307
-49.33474613819289        -49.3347461381929        -0.009452584111760467
65.7999706276938          65.7999706276938         -0.0017881919506450143
65.50422329007735         65.50422329007735        -0.0019460529894543422
-46.740136918946845       -46.740136918946845      -0.01142219643709842
-45.511255970632206       -45.511255970632206      -0.012401184487085245
-44.99222665583114        -44.992226655831146      -0.012823661474849505
64.37763726362688         64.37763726362688        -0.002603627934092952
63.95664539311449         63.95664539311449        -0.002871752121723353
-41.248745309530044       -41.24874530953005       -0.016001578259729816
-41.05372106103418        -41.05372106103418       -0.016173690923727835
63.109734299886796        63.109734299886796       -0.0034463065324219933
61.984213169953165        61.98421316995316        -0.004279683542804552
-40.70436639253633        -40.704366392536336      -0.01648313959897877
-37.70858322042261        -37.708583220422604      -0.01920687824226237
61.142495682118735        61.142495682118735       -0.004952799065443479
59.92804459613753         59.92804459613754        -0.005994626743336397
-34.369369061123095       -34.36936906112308       -0.022378982071700332
-33.326306405399          -33.326306405398995      -0.02339778510830912
57.64132997103155         57.64132997103156        -0.008166554252012119
57.538150428035436        57.53815042803544        -0.008270752624509785
-31.31468285457276        -31.31468285457275       -0.02539135728252026
-28.06183568039183        -28.06183568039183       -0.028686066272447405
-26.824167684922827       -26.82416768492283       -0.029962196425288058
57.49565781117738         57.49565781117739        -0.008313812207282887
55.23972814424349         55.239728144243486       -0.010712728198889892
-22.220351367279672       -22.220351367279676      -0.03476263416599049
-21.842090113468046       -21.84209011346805       -0.03516154402660751
54.46207972734385         54.46207972734385        -0.01158995981430438
52.36147337849547         52.361473378495475       -0.014071747735679799
-21.013160220926505       -21.013160220926505      -0.036034019754984624
-17.411528613124574       -17.411528613124577      -0.039817525429772356
51.97103291366726         51.971032913667266       -0.014550602525662535
50.26091208519756         50.260912085197575       -0.016703290692168065
-15.458805051241704       -15.458805051241704      -0.041858942740638436
-13.06483322441925        -13.06483322441925       -0.04433292427519491
47.45165807890706         47.45165807890706        -0.020416804035176185
47.32633052060812         47.326330520608124       -0.020587276844387947
-10.23296111043006        -10.23296111043006       -0.047200350394064186
-10.03165129674923        -10.03165129674923       -0.04740170132535483
47.20782296376891         47.20782296376891        -0.020748796342055835
44.45965543066148         44.45965543066148        -0.024566518188609127
-9.64665593802957         -9.64665593802957        -0.04778441367217466
-7.131439738817376        -7.131439738817377       -0.05023028102942031
41.92685128444555         41.926851284445554       -0.028190216217924308
40.94786446734738         40.94786446734738        -0.029612101836847298
39.98422952321007         39.98422952321006        -0.03101900575335919
-6.0095503709822555       -6.009550370982257       -0.051288567274824434
-4.571889302820258        -4.571889302820258       -0.052608921486910716
-2.931300555668643        -2.931300555668643       -0.054059246345035526
-2.5979224740473583       -2.5979224740473583      -0.054346567215645826
37.886490615858264        37.886490615858264       -0.034093933281736905
36.545051438502185        36.545051438502185       -0.036063876072827114
-1.7603438616614462       -1.7603438616614462      -0.055053823131587784
-0.4857002691805458       -0.48570026918054565     -0.05609098590121948
35.279325183829194        35.279325183829194       -0.037919087853695306
33.86741414566002         33.86741414566002        -0.03997720730541806
0.27421511617227345       0.2742151161722734       -0.056685307821749346
1.1745546541595158        1.1745546541595155       -0.05736362141345443
2.1578263066324954        2.157826306632495        -0.05807030646109574
33.045577999790765        33.045577999790765       -0.04116783717961061
31.5511180735374          31.551118073537396       -0.04331058858673022
2.8411342252937235        2.841134225293724        -0.058538937508581
3.5492296065877214        3.549229606587722        -0.059003345338992805
4.091968091872372         4.0919680918723715       -0.05934411021549525
31.01627950925957         31.01627950925957        -0.04407006201945581
29.35011118237447         29.350111182374466       -0.04639980597091306
4.5152984154419           4.515298415441901        -0.0596002862226004
5.179760310723543         5.179760310723543        -0.05998429732308311
5.541557904130928         5.541557904130928        -0.06018382311877768
28.95311574978844         28.95311574978844        -0.04694690017841616
27.740016366912602        27.740016366912606       -0.04859235523121504
27.27786173484258         27.27786173484258        -0.04920894234605608
27.140643777518306        27.140643777518306       -0.04939092295704916
6.089705106020221         6.0897051060202205       -0.060472524588232136
6.389829235919876         6.389829235919876        -0.06062344737007206
25.822432034126486        25.82243203412648        -0.05110708538437991
25.763526171429813        25.76352617142981        -0.05118246476263178
25.67637447561145         25.676374475611446       -0.05129377033364839
6.820949029244451         6.820949029244451        -0.060830928977972425
7.224064638038223         7.224064638038223        -0.061014774787065976
7.782255009683038         7.782255009683038        -0.061252211278683195
7.979172722454301         7.979172722454299        -0.061331139098931856
24.40632033710021         24.40632033710021        -0.052881851051022444
23.846980525409272        23.846980525409272       -0.0535606151548998
8.694363987960354         8.694363987960356        -0.06159498557260675
8.69829899646298          8.69829899646298         -0.06159633877713236
23.342238908085402        23.342238908085406       -0.054161218188170476
22.556585956413436        22.55658595641344        -0.05507202073025055
22.441271319061453        22.441271319061453       -0.05520319259312905
22.318881966853237        22.31888196685324        -0.05534165394090978
8.705045096531649         8.705045096531649        -0.06159865395538797
9.32825432898412          9.32825432898412         -0.06179758458889789
21.531533337523012        21.531533337523015       -0.05621280352230861
21.094439710441655        21.094439710441655       -0.05668134729306158
20.802797255762812        20.802797255762812       -0.05698772961280054
9.629427752035523         9.629427752035525        -0.06188293826509634
9.872075408861948         9.87207540886195         -0.06194638746402444
10.203638238299561        10.203638238299561       -0.0620250679052612
20.29667223758038         20.29667223758038        -0.05750674714585317
20.066892474584417        20.066892474584417       -0.05773700064154319
10.394530487427435        10.394530487427435       -0.0620660982591119
10.549397991100111        10.549397991100111       -0.062097027870034266
10.829568667985443        10.829568667985443       -0.06214739977512344
19.552012428520495        19.552012428520495       -0.05823979077694668
19.349571882732725        19.349571882732725       -0.058432432645363866
11.145215757905866        11.145215757905866       -0.062195336320816336
11.20628003895973         11.206280038959726       -0.062203517244964195
18.905582300199917        18.905582300199917       -0.05884428618927888
18.773284663478233        18.773284663478233       -0.05896417374166419
11.257940641502003        11.257940641502001       -0.06221015563604308
11.552679857478651        11.55267985747865        -0.06224288246650106
18.075931753574174        18.075931753574174       -0.05957281002074555
18.052519101598396        18.052519101598396       -0.05959256765418498
11.834502673512258        11.83450267351226        -0.06226597089139535
11.843880652786778        11.843880652786778       -0.062266601816250614
18.01796317926182         18.017963179261816       -0.05962163240036355
17.491189135221987        17.491189135221983       -0.06005150580491036
11.853033783132352        11.853033783132352       -0.062267208452830916
12.111673266053145        12.111673266053145       -0.062280827033420735
17.096408720498964        17.096408720498964       -0.060357108231915035
17.06625591556095         17.06625591556095        -0.06037985505316027
12.337336437483692        12.337336437483692       -0.062287496342942804
12.337418402726396        12.337418402726398       -0.0622874979685077
12.33750762496533         12.337507624965331       -0.06228749966055354
16.680286754592196        16.680286754592196       -0.06066301286117895
17.034733769852163        17.034733769852167       -0.06040354323799881
12.549955231660942        12.549955231660942       -0.062290364752240535
12.727922088407151        12.727922034674629       -0.06229426179796581
16.254468080138174        16.25446808013817        -0.060958093130858135
16.389744179799905        16.3897441797999         -0.06086629678282196
16.085848453031495        16.085848453031495       -0.06106998362114512
12.90069592497348         12.900695924973476       -0.06229416965718668
13.051199070489997        13.051199070489997       -0.06228529214913614
13.124850022980507        13.124850022980507       -0.0622788629608724
13.218317707872362        13.218317707872362       -0.06226893540665282
13.37616802158619         13.37616802158619        -0.062247809186343636
14.965344683813925        14.965344683813923       -0.061741746104462446
15.00995715314291         15.00995715314291        -0.0617198643983139
15.1030025799938          15.103002579993799       -0.06167277254224439
13.53091818559584         13.530918185595837       -0.062221899119715235
13.638072303932898        13.638072303932896       -0.06220098354080738
13.703919052584181        13.70391905258418        -0.062186932693845245
14.595085234180456        14.595085234180456       -0.06190713979306483
14.739303581068476        14.739303581068476       -0.06184616788148156
13.904250349859224        13.904250349859225       -0.06213857955949281
14.01509218579534         14.015092185795343       -0.06210819943895967
14.209471683710579        14.209471683710579       -0.06204869236426027
14.40818273036741         14.40818273036741        -0.06197964864107217
