% Model:              Membran2D3D25membranethickness.mph
% Version:            COMSOL 5.6.0.401
% Date:               Jan 4 2025, 21:30
% Dimension:          2
% Nodes:              244
% Expressions:        1
% Description:        Displacement field, Z component
% Length unit:        µm
% cpl1x                   cpl1y                    w (µm) @ memb_thick=2.5, edge_width=200, m_stylus=5, circ_pos=70
51.23836774365946         51.23836774365946        -0.017901292621215925
51.021014961084525        51.02101496108452        -0.018112507603903556
50.90614410881453         50.90614410881453        -0.018226290260030673
50.7486630048594          50.74866300485941        -0.018379498045897117
50.61351548477814         50.61351548477815        -0.01850390037501496
-499.9999999999999        -499.9999999999999       0
-461.2067152521843        -461.20671525218427      -7.106206997806562E-7
-452.4204553688842        -452.4204553688841       -5.991575746078691E-7
-431.5447876735226        -431.5447876735226       -8.983529400669788E-7
-404.838991288963         -404.83899128896303      -8.71725860676159E-7
-401.64570269430715       -401.6457026943071       -8.435298607873624E-7
-399.49391998577795       -399.493919985778        -8.302193519305655E-7
-359.005854099249         -359.005854099249        -8.91770287968771E-7
-348.6244860021648        -348.6244860021649       -8.824550383722464E-7
-300.39085057594815       -300.3908505759482       -8.860289288841848E-7
-299.4376540979375        -299.4376540979375       -8.857300615868514E-7
-298.53403657094134       -298.5340365709413       -8.855376638166142E-7
-171.4324416577674        -171.4324416577674       -8.756577369790568E-7
-161.32303123321648       -161.3230312332165       -8.748125802860981E-7
-151.6015142324374        -151.6015142324374       -8.710805593560416E-7
-129.30148155078248       -129.30148155078246      -8.371611089315429E-7
-250.3955045841206        -250.3955045841206       -8.86925438791378E-7
-225.57002030629616       -225.57002030629616      -8.839455314579788E-7
-118.28947935252698       -118.28947935252697      -7.737869110032079E-7
-111.81880255172229       -111.81880255172227      -7.099656702916373E-7
-196.98364707219895       -196.98364707219892      -8.805898322886717E-7
-106.57061237712182       -106.57061237712182      -6.338482940256459E-7
-100.32237682104025       -100.32237682104025      -5.108829726649927E-7
-94.78850254371831        -94.78850254371831       -3.6714050729439295E-7
-89.49706506247321        -89.49706506247321       -1.973161933112008E-7
-84.53306774855172        -84.5330677485517        -2.2961858067106693E-8
-82.77014234899576        -82.77014234899575       3.759911409394249E-8
-79.85231213485308        -79.85231213485308       9.562208558151216E-8
-77.7946544699767         -77.7946544699767        8.46888254126334E-8
-74.22390061014687        -74.22390061014687       -4.6532777031979857E-7
-76.7860734527808         -76.78607345278081       3.79598457430544E-8
-72.31220481973702        -72.31220481973702       -2.0814192541652166E-6
-73.22811710475948        -73.22811710475948       -1.0318153197411695E-6
499.9999999999999         499.9999999999999        3.9997454654741814E-37
462.11904772907565        462.11904772907576       -8.005904595160271E-7
-70.69065173831274        -70.69065173831254       -9.571349832511774E-6
450.06561853961955        450.06561853961944       -6.758016018185425E-7
433.09829522028224        433.09829522028224       -8.903012466539596E-7
-69.65281132103533        -69.65281132103534       -2.3738868924695667E-5
406.86833040814145        406.86833040814133       -8.473862822904422E-7
404.8685821449764         404.8685821449763        -8.239135947901919E-7
-68.73412095849274        -68.73412095849272       -4.389664463268068E-5
-68.66644845140249        -68.66644845140249       -4.5652614476677375E-5
402.7970809398303         402.79708093983027       -8.190722845004732E-7
373.445285961653          373.445285961653         -9.003751917259135E-7
353.2174518048988         353.21745180489893       -8.89179364554114E-7
-68.60876063803043        -68.60876063803043       -4.717643282311551E-5
-67.60604013770669        -67.60604013770669       -7.775467522360691E-5
330.6845660527718         330.68456605277186       -8.889718963166078E-7
306.9665897844655         306.96658978446555       -8.928086136824671E-7
-67.08715234017838        -67.08715234017839       -9.658134343468834E-5
-66.21591590115953        -66.21591590115953       -1.326730704750393E-4
277.27954199079124        277.27954199079124       -8.928057300656216E-7
275.13435621666173        275.1343562166618        -8.929059415966128E-7
-65.82582126360847        -65.82582126360849       -1.506255613691264E-4
-64.66815731827238        -64.66815731827236       -2.1024028374550031E-4
-65.12765131223784        -65.12765131223783       -1.854511935141312E-4
-64.41647114400358        -64.41647114400358       -2.244398575701764E-4
270.082217724827          270.08221772482705       -8.939306893874341E-7
243.58141080393062        243.58141080393068       -8.98852727787125E-7
228.66189643082922        228.66189643082922       -9.032713561436157E-7
-63.473005990848236       -63.47300599084825       -2.814874370898216E-4
-62.80991542603388        -62.80991542603389       -3.251399241970865E-4
203.27116418625457        203.27116418625454       -9.047215588376698E-7
168.03406112212005        168.03406112212005       -8.161162407636106E-7
-62.000183329511614       -62.000183329511614      -3.8233649797160226E-4
-60.898259594128646       -60.89825959412864       -4.668760377557863E-4
-59.70077805411964        -59.70077805411964       -5.67274655240288E-4
158.21468719898039        158.2146871989804        -7.433806455725432E-7
138.39434708774576        138.39434708774576       -5.944171798562412E-7
129.7278669889557         129.7278669889557        -7.019142884676664E-7
-57.96225211019984        -57.96225211019984       -7.282773241013876E-4
-57.27532780284799        -57.27532780284799       -7.967519568571612E-4
107.58898346204384        107.58898346204384       -3.4073044050730458E-6
116.03316678444361        116.03316678444362       -1.6524526743148586E-6
-56.977041787514544       -56.97704178751455       -8.273423054612816E-4
-54.354562289277986       -54.354562289277986      -0.0011171519238418188
-55.42797944550826        -55.42797944550825       -9.939890691165413E-4
96.4231719498061          96.42317194980612        -8.987354422832143E-6
100.43680637253543        100.43680637253541       -6.368200250532871E-6
-54.07654791209673        -54.07654791209673       -0.0011500799074846667
-52.08625456886436        -52.08625456886436       -0.0013973767225002038
88.68456631592431         88.68456631592431        -1.7690031138717617E-5
92.40713233099709         92.40713233099709        -1.272489559887028E-5
-50.42684846585733        -50.42684846585733       -0.0016189435885253086
-49.66871611742337        -49.66871611742336       -0.0017247314329714859
82.73599721140184         82.73599721140182        -3.139521490843156E-5
84.24559039504996         84.24559039504994        -2.7010660440343077E-5
-46.810020741564294       -46.810020741564294      -0.00214822566860061
-46.54398930249272        -46.54398930249272       -0.0021896186920695665
80.10086890691696         80.10086890691694        -4.2120886467309914E-5
77.84700151896362         77.84700151896362        -5.557210984416946E-5
-46.29987012008271        -46.29987012008271       -0.0022279441935864988
-42.84734429585633        -42.84734429585633       -0.0027975077591932797
74.08036955253587         74.08036955253587        -1.0244382215979948E-4
76.73243005239036         76.73243005239037        -6.472096980754867E-5
-39.17617755402188        -39.176177554021876      -0.0034603570345962233
-39.061341180940474       -39.06134118094048       -0.0034820594172910177
72.2249151693118          72.2249151693118         -1.6518191566023945E-4
73.02494410702587         73.02494410702587        -1.308799514281898E-4
-38.80115461583824        -38.80115461583825       -0.00353135158245968
-34.9657541216366         -34.96575412163659       -0.004289640634048102
70.69065173831274         70.69065173831247        -3.346645875699234E-4
-33.4559286604249         -33.4559286604249        -0.004604565241217117
-30.944232974181055       -30.944232974181055      -0.0051474578888279394
69.69050851910336         69.69050851910336        -5.98169219620437E-4
-25.792153212838574       -25.792153212838578      -0.0063347249311571764
-25.48862689068616        -25.48862689068616       -0.006407771482711134
68.68225066496807         68.68225066496807        -0.001002790518855212
68.6736370025055          68.6736370025055         -0.0010068036332553719
-25.329739307837556       -25.329739307837556      -0.006446273316873853
-18.940235357399622       -18.94023535739962       -0.0080564249157319
68.66571865443946         68.66571865443947        -0.001010496993301873
67.63320005499925         67.63320005499924        -0.0015517310608118098
-17.158894648381747       -17.158894648381747      -0.008529902298016352
-12.661764185156397       -12.661764185156397      -0.009762283658622787
66.85166293323006         66.85166293323006        -0.0020368685042572955
66.826688434267           66.82668843426701        -0.0020533902851450946
-9.898758332155122        -9.898758332155122       -0.010546228254314107
-6.8214837202416305       -6.82148372024163        -0.011438640842460131
65.81313590429616         65.81313590429616        -0.002771868291763761
65.42234273777349         65.42234273777348        -0.0030733823116052207
65.41602028577697         65.41602028577697        -0.003078372738577632
-3.3036284008768084       -3.3036284008768075      -0.01247912802020455
-1.0929967149512483       -1.0929967149512478      -0.013143353295404945
65.40560142389053         65.40560142389053        -0.0030866112172795853
63.83635992021174         63.83635992021175        -0.0044179575792553435
4.799932354156972         4.799932354156972        -0.014924686410037366
4.947844123245433         4.947844123245434        -0.014969814087462553
5.097944407717133         5.097944407717134        -0.015015489691352999
62.44997778912208         62.44997778912208        -0.005730734733153164
62.32131230459245         62.32131230459245        -0.0058583650962854925
10.052908624711476        10.052908624711478       -0.01650304065794038
10.642389547184935        10.642389547184937       -0.016678400246291723
62.185640266971134        62.185640266971134       -0.005993879769636784
60.848561884454554        60.84856188445456        -0.00737299368268544
59.83067079633234         59.83067079633233        -0.008469930722733802
57.38001536012902         57.38001536012902        -0.01121661400916667
58.19101234531245         58.191012345312444       -0.010296808655043569
59.0036483626735          59.003648362673495       -0.009384555954707139
15.154852636665607        15.154852636665607       -0.017983040691148495
15.5470514259056          15.5470514259056         -0.018094027218601653
56.5434231862377          56.5434231862377         -0.01216955403747748
57.36166835648701         57.36166835648701        -0.011237505230123611
56.39675727870873         56.39675727870873        -0.012336696882550407
57.36928474978434         57.369284749784335       -0.011228832678538274
59.389130752875154        59.38913075287515        -0.008956137827891782
19.859956981128207        19.859956981128207       -0.01925780342415225
19.4085910341545          19.4085910341545         -0.01914011643505176
17.01897263992558         17.01897263992558        -0.018501711740900238
55.60229111486742         55.60229111486743        -0.013239434747543962
55.595558254069196        55.5955582540692         -0.013247067154996739
23.94918513229724         23.94918513229724        -0.020253014150404914
23.940942085350436        23.940942085350436       -0.020251123633873474
23.959876331835645        23.95987633183565        -0.020255461615017838
54.86841932024521         54.868419320245216       -0.014066692610522513
55.56449940703968         55.56449940703969        -0.01328225205167642
27.35321297457501         27.353212974575005       -0.020970090315001418
28.545961799891572        28.545961799891572       -0.02119156290964605
54.61772182080177         54.617721820801776       -0.014347055170177392
54.217486615417066        54.21748661541706        -0.0147914437902406
29.621348888980336        29.621348888980336       -0.021375769251760317
31.781650913780005        31.781650913780002       -0.021696209731514978
53.61534904651532         53.61534904651532        -0.015451343193386318
53.739971309667624        53.73997130966762        -0.015315702783411092
31.78221984182074         31.782219841820737       -0.021696285190783045
33.66025270818693         33.66025270818693        -0.021913521674586704
31.782717136374377        31.782717136374373       -0.02169635101711556
53.52812859757866         53.52812859757865        -0.01554597517359849
53.06059921293199         53.06059921293198        -0.016047868376908473
35.29071180459543         35.29071180459543        -0.02204880189193774
34.35896999409888         34.35896999409887        -0.021978023384332707
52.890832775746944        52.890832775746944       -0.01622787259067273
52.64809897453688         52.64809897453688        -0.016482872446736383
52.43275479573264         52.43275479573264        -0.016706668265127896
36.840524117689405        36.840524117689405       -0.022124860002702435
36.39155391160363         36.39155391160362        -0.022108393545865985
52.30450824672957         52.30450824672957        -0.01683880979323159
52.07483859604359         52.07483859604359        -0.01707312586388153
51.967191724690345        51.96719172469035        -0.017181922837316902
37.908859823968946        37.90885982396894        -0.022143746712430794
38.099407582430416        38.099407582430416       -0.022144068153670964
51.900604510370805        51.900604510370805       -0.017248896348254862
51.64223927336902         51.64223927336903        -0.017506247420990852
39.31433363653076         39.31433363653076        -0.022122167539375834
38.183234358569784        38.18323435856978        -0.02214392847634998
39.87452180510153         39.87452180510152        -0.022097461429744718
40.10257261858773         40.10257261858773        -0.022084636472555243
51.40427093336022         51.40427093336022        -0.017739946223486257
40.9468004061152          40.9468004061152         -0.022022071132083855
41.144943674674806        41.144943674674806       -0.022003936207941093
41.37435187656738         41.37435187656739        -0.021981148090192484
41.95723872292896         41.95723872292896        -0.021914397934176894
42.584163115768014        42.584163115768014       -0.02182796778619179
42.664072899939896        42.664072899939896       -0.021815827814447422
43.3204887578664          43.3204887578664         -0.02170567301557781
42.82435980960412         42.82435980960412        -0.021790650501456052
43.43174973238858         43.43174973238858        -0.021685158169531267
43.81282341787767         43.81282341787767        -0.021610477765663105
44.13990079862465         44.13990079862465        -0.021540927509483453
44.33173598508013         44.33173598508013        -0.021497729074524567
44.79816157293914         44.79816157293913        -0.021384753667493504
45.230537171455985        45.23053717145599        -0.021269664887084174
45.2660954437944          45.26609544379441        -0.021259748544080765
45.30725890682295         45.30725890682296        -0.02124817172455832
45.668938808082224        45.66893880808223        -0.02114217024856163
46.022878409793215        46.02287840979321        -0.021030807100413707
46.05720890905478         46.05720890905477        -0.02101960132960954
46.121750496011686        46.12175049601168        -0.020998311439454673
46.40792218047088         46.40792218047088        -0.02090062842400144
46.512159222774144        46.512159222774144       -0.020863708818526797
46.71396071159029         46.71396071159029        -0.02079010178777237
46.84814446660777         46.84814446660778        -0.020739590875810003
47.12849405240741         47.12849405240741        -0.020629921112541503
48.083261147575705        48.083261094160825       -0.02022324674949392
47.89631615964995         47.89631615964994        -0.020303006663807886
47.68138857088507         47.681388570885076       -0.020397651411917447
47.681344065756576        47.68134406575658        -0.02039767090001796
47.681301898040175        47.681301898040175       -0.020397689332002887
47.45421727889664         47.454217278896635       -0.020495507455125142
47.19940499194538         47.19940499194538        -0.020601300367832448
47.16928447643949         47.16928447643949        -0.020613501471166674
50.45834801536351         50.45834801536351        -0.018642348154483093
50.36460153343504         50.36460153343505        -0.018723779162316954
50.319864119356964        50.319864119356964       -0.018762054566615706
50.08806078296388         50.08806078296388        -0.018954827201939667
49.943540304125776        49.943540304125776       -0.01907027734764487
49.757772751679965        49.757772751679965       -0.019213358433105183
49.56628588141032         49.56628588141032        -0.019354579046659895
49.36765564081773         49.36765564081773        -0.019494319875981575
49.26008838944925         49.26008838944925        -0.01956712494449177
49.0505700556646          49.0505700556646         -0.019703117816349702
48.989239109725645        48.98923910972565        -0.01974147105768739
48.892066526182035        48.892066526182035       -0.019800885642302302
48.725793120616046        48.725793120616046       -0.019898659477248098
48.5700387656125          48.570038765612495       -0.01998570899423338
48.48118408272809         48.48118408272809        -0.020033347909380574
48.408003238233306        48.408003238233306       -0.020071439268700735
48.25705412960612         48.25705412960612        -0.02014630607368779
