% Model:              Membran2D3D25membranethickness.mph
% Version:            COMSOL 5.6.0.401
% Date:               Jan 4 2025, 21:24
% Dimension:          2
% Nodes:              251
% Expressions:        1
% Description:        Displacement field, Z component
% Length unit:        µm
% cpl1x                   cpl1y                    w (µm) @ memb_thick=2.5, edge_width=200, m_stylus=5, circ_pos=30
22.62187286135264         22.621872861352635       -0.05572682388523488
22.740544986197662        22.740544986197662       -0.055632555854799925
22.96229795809134         22.962297958091344       -0.05545903350946387
22.447564061810695        22.4475640618107         -0.055860860337895724
22.332130717245345        22.332130717245345       -0.05594297868037929
-499.9999999999999        -499.9999999999999       0
-461.2067152521843        -461.20671525218427      -7.106232732115667E-7
-452.4204553688842        -452.4204553688841       -5.991604621741541E-7
-431.5447876735226        -431.5447876735226       -8.983573884487342E-7
-404.838991288963         -404.838991288963        -8.71733197577887E-7
-401.64570269430715       -401.6457026943071       -8.435375868270262E-7
-399.493919985778         -399.493919985778        -8.30227402853132E-7
-359.00585409924906       -359.00585409924906      -8.917882045802349E-7
-348.6244860021648        -348.6244860021649       -8.824768906361315E-7
-300.39085057594815       -300.3908505759482       -8.860888972799687E-7
-299.4376540979375        -299.4376540979375       -8.857909808656661E-7
-298.53403657094134       -298.5340365709413       -8.855987788712283E-7
-250.3955045841206        -250.3955045841206       -8.871230590578608E-7
-225.57002030629616       -225.57002030629616      -8.843118911443503E-7
-196.98364707219895       -196.98364707219892      -8.796357988339925E-7
-171.4324416577674        -171.4324416577674       -8.633726241214897E-7
-161.32303123321648       -161.3230312332165       -8.517255683314412E-7
-151.6015142324374        -151.6015142324374       -8.320206177818623E-7
-129.30148155078248       -129.30148155078246      -7.630991395929446E-7
-118.28947935252698       -118.28947935252697      -7.396836473737401E-7
-111.81880255172229       -111.81880255172227      -7.47159507003359E-7
-106.57061237712182       -106.57061237712182      -7.931487725545438E-7
-100.32237682104027       -100.32237682104025      -9.183085313395601E-7
499.9999999999999         499.9999999999999        1.199897935183664E-36
462.11904772907565        462.1190477290757        -8.005267570597063E-7
-94.78850254371831        -94.7885025437183        -1.166829277922428E-6
-89.49706506247321        -89.49706506247321       -1.6315630713076197E-6
450.06561853961955        450.0656185396195        -6.757265935291893E-7
433.09829522028224        433.09829522028224       -8.901965946610488E-7
-84.53306774855172        -84.5330677485517        -2.540403191117512E-6
-82.77014234899576        -82.77014234899575       -3.0461589310633466E-6
406.8683304081414         406.86833040814133       -8.472117686852577E-7
404.86858214497636        404.86858214497636       -8.237333384149741E-7
-79.85231213485308        -79.85231213485308       -4.425099612766262E-6
-77.7946544699767         -77.7946544699767        -5.9629454675340695E-6
402.7970809398303         402.79708093983027       -8.188829179157007E-7
373.445285961653          373.445285961653         -9.000351949017474E-7
353.2174518048988         353.21745180489893       -8.886335166127104E-7
-76.7860734527808         -76.78607345278081       -7.0537951628352526E-6
-74.22390061014687        -74.22390061014687       -1.2258525900232796E-5
330.6845660527718         330.68456605277186       -8.880737720086296E-7
306.9665897844655         306.96658978446555       -8.912950264877566E-7
-73.22811710475948        -73.22811710475948       -1.6332188011165835E-5
-72.31220481973702        -72.31220481973702       -2.2722482243192072E-5
277.27954199079113        277.27954199079113       -8.897035007036787E-7
275.1343562166617         275.1343562166617        -8.896710009012475E-7
-70.69065173831274        -70.69065173831254       -5.946713402047244E-5
270.08221772482705        270.08221772482705       -8.901788084985395E-7
243.58141080393062        243.58141080393065       -8.919244206164209E-7
228.66189643082922        228.66189643082922       -8.92626549852099E-7
-69.64802635299625        -69.64802635299628       -1.2440196343932222E-4
203.27116418625454        203.27116418625457       -8.906641283440428E-7
168.03406112212005        168.03406112212005       -8.254651040675622E-7
-68.68893310410552        -68.68893310410552       -2.1932211036927116E-4
-68.65688083796466        -68.65688083796466       -2.2305117371502572E-4
158.21468719898039        158.2146871989804        -7.723411968555324E-7
138.39434708774576        138.39434708774576       -6.284535401243969E-7
129.72786698895567        129.7278669889557        -6.28531132251934E-7
-68.63226894600865        -68.63226894600865       -2.2593549437346922E-4
-67.56318960917815        -67.56318960917817       -3.7056201208144187E-4
116.0331667844436         116.03316678444364       -9.930448250282974E-7
107.58898346204384        107.58898346204384       -1.7964753720334717E-6
-67.11775103925339        -67.11775103925339       -4.418463261758955E-4
-66.08666868988345        -66.08666868988345       -6.308964760864145E-4
100.43680637253543        100.43680637253541       -3.2325874609484347E-6
96.4231719498061          96.42317194980612        -4.5368178765246306E-6
-65.90999173790966        -65.90999173790966       -6.666109936873534E-4
-64.77441441201147        -64.77441441201147       -9.185343532851338E-4
-65.30534372974668        -65.30534372974668       -7.959532824833723E-4
92.40713233099709         92.40713233099709        -6.433302521447968E-6
88.68456631592431         88.68456631592431        -8.990409084816681E-6
-64.57882013118568        -64.57882013118568       -9.657974048108554E-4
-63.43140322336654        -63.43140322336654       -0.0012650750181158559
84.24559039504996         84.24559039504994        -1.387611483491547E-5
82.73599721140184         82.73599721140182        -1.619406426153467E-5
-62.036243882947595       -62.0362438829476        -0.0016782399117823198
-61.37767645478364        -61.37767645478364       -0.0018914988421416658
80.10086890691696         80.10086890691694        -2.1973877086081553E-5
77.84700151896362         77.84700151896362        -2.9322256247996263E-5
-60.56447107561783        -60.56447107561783       -0.0021703114363680856
-59.31158014074207        -59.311580140742066      -0.002632321385490926
76.73243005239036         76.73243005239037        -3.4388745979933136E-5
74.08036955253587         74.08036955253587        -5.616347129593656E-5
-57.97986805660106        -57.97986805660106       -0.0031650687630489396
-57.19227973255973        -57.19227973255973       -0.003499690603077976
73.02494410702587         73.02494410702589        -7.334551361629942E-5
72.2249151693118          72.2249151693118         -9.478307857040482E-5
-56.23371571284504        -56.23371571284504       -0.0039258043978262925
-54.96386895052816        -54.96386895052815       -0.004521104844593228
70.69065173831274         70.69065173831247        -2.083217185452207E-4
-54.18713060794332        -54.18713060794331       -0.0049022151193913385
-52.74942235147974        -52.74942235147974       -0.005639780990687405
69.64306892029259         69.6430689202926         -4.046080508798502E-4
-50.89537480777402        -50.89537480777402       -0.006650507966056518
-49.88829420324139        -49.88829420324138       -0.007226760116729365
68.6725488025994          68.67254880259941        -6.883434175391943E-4
68.63646409654814         68.63646409654814        -7.006835523441936E-4
-47.406406686934844       -47.406406686934844      -0.008722769153997164
-46.797341330198236       -46.79734133019824       -0.00910607364383069
-46.51759805791764        -46.517598057917645      -0.009284374624498222
68.60776148769955         68.60776148769955        -7.105775361054781E-4
67.55215479452336         67.55215479452335        -0.0011268338791071404
-43.4752493389181         -43.475249338918104      -0.011300101767366686
-40.968733540238816       -40.968733540238816      -0.013064081718457717
67.05868674589112         67.05868674589111        -0.001355767343802018
66.10736103623779         66.10736103623779        -0.0018559501543668926
-40.35287252433691        -40.35287252433692       -0.013511401313019865
-39.507666379017365       -39.507666379017365      -0.014132962575052246
-37.070867525912846       -37.070867525912846      -0.015975130149560177
65.8294137369815          65.8294137369815         -0.002016350753283124
64.72709654867833         64.72709654867833        -0.0027128528253631775
-35.60001018727924        -35.60001018727923       -0.017122128285033424
-34.3541414590835         -34.3541414590835        -0.018112830870744806
64.70444392743619         64.7044439274362         -0.0027281702930756968
63.38058445964792         63.38058445964792        -0.0036885608732609367
-31.52714814051688        -31.52714814051688       -0.020420098271971093
-30.511176279690005       -30.511176279690005      -0.021269150219634297
61.50308701633316         61.50308701633317        -0.005259573185550738
61.13403514043253         61.13403514043254        -0.005595857724913186
-29.038066168165663       -29.038066168165663      -0.022516323237101565
-25.960606953051624       -25.960606953051627      -0.025174827678226614
60.58319321106161         60.58319321106161        -0.006113175275707164
58.92549525307521         58.92549525307521        -0.007775070594796706
-23.800740005956875       -23.800740005956875      -0.027080482996431437
-21.14097637764779        -21.14097637764779       -0.029461786315756456
58.20449472818612         58.204494728186134       -0.008545692059711256
55.94418315673296         55.94418315673296        -0.011126329698848563
-17.347336472961636       -17.347336472961636      -0.03289999253512061
-15.13464693594252        -15.13464693594252       -0.0349197631230902
-12.989744649658324       -12.989744649658325      -0.03687569503555061
55.55070161989945         55.55070161989945        -0.011600218423617494
53.14896741677137         53.14896741677137        -0.014623656938096564
54.7773495551606          54.7773495551606         -0.01254954345737282
-10.18793995860199        -10.187939958601993      -0.039415404315494
-8.10001277978246         -8.10001277978246        -0.04128598806796928
52.3262273742725          52.326227374272506       -0.015709072131389886
50.681654661914095        50.6816546619141         -0.017941261330490368
-6.621108582531959        -6.621108582531958       -0.04259554734779233
-4.070877104657568        -4.070877104657568       -0.04480399452438146
-2.839532843586814        -2.839532843586814       -0.04584612824061447
-1.1506217242555465       -1.1506217242555465      -0.047240727084865576
48.855464572323385        48.855464572323385       -0.020506718792264393
48.02131812413464         48.02131812413464        -0.02170528609831266
-0.039178022392741596     -0.039178022392741096    -0.04813439457041696
1.9461227207724157        1.9461227207724154       -0.04967387788224056
1.950150577164108         1.950150577164108        -0.04967692662606281
45.22547343373617         45.22547343373617        -0.025810344190100885
46.91489377297491         46.91489377297491        -0.023315477175469397
3.8677126839172913        3.867712683917291        -0.051083575116925434
4.181544587075013         4.181544587075013        -0.05130566599622131
44.15116849544401         44.151168495444004       -0.027416294834891653
42.38447000064219         42.38447000064218        -0.03007458434126746
5.9217819345878855        5.921781934587886        -0.05248644989221085
6.531498611464738         6.531498611464738        -0.052879589352426586
40.649383075471526        40.64938307547151        -0.03269552419178673
40.12619041875791         40.1261904187579         -0.03348615287543288
7.994667626039845         7.994667626039844        -0.05377275277711272
8.141419908023641         8.141419908023641        -0.05385838258762805
38.18160410957849         38.18160410957848        -0.03640879090455762
37.995670042477066        37.99567004247706        -0.036687015415976916
8.3802943715362           8.3802943715362          -0.05399604635408787
9.687513340965664         9.687513340965664        -0.054709714472348056
35.99690198296914         35.99690198296914        -0.039645098249771665
35.86936890570131         35.8693689057013         -0.039831995497464336
35.679931422015514        35.679931422015514       -0.040108757849166565
11.105926937610379        11.105926937610379       -0.0554037699054373
11.110164741844677        11.11016474184468        -0.0554057123867816
34.44328828999508         34.44328828999508        -0.04189647128528928
33.602842040501415        33.602842040501415       -0.04309084207190372
11.114807677347498        11.1148076773475         -0.055407839442114484
12.345421698108947        12.345421698108947       -0.055933512473932696
12.975950994599824        12.975950994599826       -0.056172771360332656
32.96970355110142         32.96970355110142        -0.043978198196419606
32.286778644337545        32.286778644337545       -0.044921582365222236
13.317827193612967        13.317827193612967       -0.05629349118053496
14.092547159079706        14.092547159079706       -0.05654194016465132
14.185024772011142        14.185024772011142       -0.056569230735800856
13.981614935355596        13.981614935355598       -0.0565085218059703
31.283465242152587        31.283465242152584       -0.046278686397563384
30.81539663932649         30.81539663932648        -0.04689917769192649
30.384723128810897        30.384723128810887       -0.04746222256553565
14.850454442786964        14.850454442786964       -0.05674950671022924
15.346111040134963        15.346111040134963       -0.05686494297915083
29.58989849577682         29.58989849577682        -0.0484799570563578
29.11920301356716         29.11920301356716        -0.049068834403909835
15.440711097740387        15.440711097740385       -0.05688511137819885
15.984371743882757        15.984371743882754       -0.056988476872736345
28.489532656878673        28.489532656878673       -0.04983911258626562
28.314695023812178        28.31469502381218        -0.050049327008881005
16.037740411689683        16.037740411689683       -0.05699748728931858
16.46231285663214         16.46231285663214        -0.057061385695668224
16.86622630554697         16.86622630554697        -0.05710914056521073
16.972036833444662        16.972036833444662       -0.05711952683346643
27.41075430301272         27.410754303012723       -0.05110806672923017
27.974496258401366        27.974496258401366       -0.05045339764886744
17.17382598092685         17.173825980926853       -0.057136699619388075
17.497720492369673        17.497720492369673       -0.057157033327982575
27.16813455635703         27.16813455635703        -0.0513840341787975
26.45639199509457         26.45639199509457        -0.052171140556583555
26.33535711930328         26.335357119303275       -0.05230166098157019
17.66420363542732         17.664203635427317       -0.057163949562785005
17.902552311811622        17.90255231181162        -0.05716949793065926
18.246322194454198        18.2463221944542         -0.057168238769928055
25.94792081613194         25.94792081613194        -0.05271222120201882
25.766507105215467        25.766507105215467       -0.05290071241521135
18.277020550310176        18.27702055031018        -0.057167587738654206
18.298389076091905        18.298389076091908       -0.05716708248221845
18.619465796746105        18.619465796746105       -0.0571540231330351
25.69902450828722         25.699024508287224       -0.05297021478219522
25.292399499873113        25.29239949987312        -0.05338139457247408
18.915399616616916        18.915399616616916       -0.05713291169714363
18.91548292554615         18.91548292554615        -0.05713290453535283
24.922777551387657        24.922777551387657       -0.053743627508632576
24.90896719621216         24.90896719621216        -0.05375694839837942
18.915571568866124        18.915571568866124       -0.05713289690271685
19.171396411118522        19.171396411118522       -0.057107593945199736
19.403674200417296        19.403674200417296       -0.05707928428064719
24.868076292692425        24.868076292692425       -0.05379628728438745
24.34203056443521         24.342030564435213       -0.054289183802114886
24.197120440051282        24.197120440051286       -0.054420631916298215
19.408423512337347        19.408423512337347       -0.0570786574990436
19.413454687377186        19.413454687377186       -0.05707798786136342
19.620866909046235        19.620866909046235       -0.057049278976939365
23.859601086235248        23.859601086235248       -0.05471902395927761
23.792009281144825        23.79200928114482        -0.05477748207894285
19.798989900232915        19.79898984657981        -0.05702620436896514
23.37743914238986         23.37743914238986        -0.05512613424000222
23.680738716047745        23.680738716047742       -0.05487272642979156
23.131349011771725        23.131349011771725       -0.0553252743595038
19.982855267455676        19.982855267455676       -0.05699786669956615
20.090682739058508        20.090682739058508       -0.05697549182447626
20.22280985854697         20.222809858546974       -0.05694418200235773
20.499444972067295        20.499444972067298       -0.05686603991256409
20.546146756896775        20.546146756896775       -0.05685122002645702
21.725012493029496        21.7250124930295         -0.05632675210625505
21.76715963838128         21.767159638381283       -0.056302643773762866
20.580882413147112        20.580882413147116       -0.05683990711368293
20.84844953207596         20.84844953207596        -0.056744328714452695
21.992744516487477        21.992744516487477       -0.056167284993526335
22.06737973295513         22.067379732955132       -0.05612016846688462
22.23448610800472         22.234486108004724       -0.05601015903165172
20.944434981184617        20.944434981184614       -0.05670639979322254
21.16434007230047         21.164340072300465       -0.0566122734933405
21.54206552021014         21.542065520210144       -0.05642710625832335
21.307591002622562        21.307591002622562       -0.05654554417329249
21.22901233083998         21.22901233083998        -0.05658267492754615
