% Model:              Membran2D3D25membranethickness.mph
% Version:            COMSOL 5.6.0.401
% Date:               Jan 4 2025, 21:14
% Dimension:          2
% Nodes:              232
% Expressions:        1
% Description:        Displacement field, Z component
% Length unit:        µm
% cpl1x                   cpl1y                    w (µm) @ memb_thick=2.5, edge_width=200, m_stylus=10, circ_pos=80
58.295653396471764        58.29565339647178        -0.01784917559556561
58.08732666971562         58.08732666971562        -0.018186512747755314
57.977211920680006        57.977211920680006       -0.018369857777717314
57.81973000080866         57.81973000080866        -0.018627201067123535
57.68459474177375         57.68459474177374        -0.018834799354527493
-499.9999999999999        -499.9999999999999       0
-461.2067152521843        -461.20671525218427      -7.105958176730137E-7
-452.4204553688842        -452.4204553688841       -5.991296004140266E-7
-431.5447876735226        -431.5447876735226       -8.983102511861313E-7
-404.838991288963         -404.838991288963        -8.716547975724235E-7
-401.64570269430715       -401.6457026943071       -8.434548955432544E-7
-399.493919985778         -399.493919985778        -8.30140857845769E-7
-89.49706506247321        -89.49706506247321       5.935120174750784E-7
-84.53306774855172        -84.5330677485517        1.117947642166155E-6
-82.77014234899576        -82.77014234899575       1.3399236285725083E-6
-359.00585409924906       -359.00585409924906      -8.91585601847253E-7
-348.6244860021648        -348.6244860021649       -8.822320401266772E-7
-94.78850254371831        -94.7885025437183        1.707955414590106E-7
-100.32237682104027       -100.32237682104025      -1.5673954286573095E-7
-79.85231213485308        -79.85231213485308       1.740202543911668E-6
-77.7946544699767         -77.7946544699767        2.0417346159900407E-6
-76.7860734527808         -76.78607345278081       2.181103598695709E-6
-300.39085057594815       -300.3908505759482       -8.853845108763729E-7
-299.4376540979375        -299.4376540979375       -8.850749703732884E-7
-106.57061237712182       -106.57061237712182      -4.186731695836294E-7
-111.81880255172229       -111.81880255172227      -5.742760140160271E-7
-74.22390061014687        -74.22390061014687       2.3093287360154924E-6
-73.22811710475948        -73.22811710475948       2.0794930930521205E-6
-298.53403657094134       -298.5340365709413       -8.848618419611034E-7
-250.3955045841206        -250.3955045841206       -8.849554311300209E-7
-129.30148155078248       -129.30148155078246      -8.149645977954983E-7
-151.6015142324374        -151.6015142324374       -8.657499018541013E-7
-118.28947935252698       -118.28947935252697      -6.982457994051883E-7
-225.57002030629616       -225.57002030629616      -8.799182662984362E-7
-171.4324416577674        -171.4324416577674       -8.681051270776814E-7
-161.32303123321648       -161.3230312332165       -8.68887919205862E-7
-72.31220481973702        -72.31220481973702       1.4107573672436246E-6
-70.69065173831274        -70.69065173831254       -5.215468213075402E-6
-196.98364707219895       -196.98364707219892      -8.743274303068554E-7
-69.66432751701169        -69.66432751701169       -1.857595499845356E-5
-68.7132142491325         -68.71321424913252       -3.8938906221385766E-5
-68.66329918478478        -68.66329918478479       -4.0210963269757954E-5
-68.62213085506811        -68.62213085506812       -4.127371272050524E-5
-67.62107981550304        -67.62107981550304       -7.114125195319167E-5
-67.13254921018819        -67.13254921018819       -8.849517393222333E-5
-66.25334310713018        -66.25334310713019       -1.2419591433454234E-4
-65.88309264956666        -65.88309264956666       -1.4092478199912142E-4
-64.71109894417805        -64.71109894417806       -2.0031133001251964E-4
-65.20536511861992        -65.20536511861994       -1.7408189502956004E-4
-64.43605854369166        -64.43605854369166       -2.156466168801852E-4
-63.53207415898017        -63.53207415898015       -2.696873492898185E-4
-62.733018169929          -62.73301816992899       -3.220282346273281E-4
-62.051688489551935       -62.051688489551935      -3.699784362669951E-4
499.9999999999999         499.9999999999999        1.1999700565720362E-36
462.11904772907565        462.1190477290757        -8.007054999726179E-7
-60.99309297547245        -60.99309297547244       -4.5039418692903194E-4
-59.867815255113          -59.867815255112994      -5.435824720717795E-4
450.06561853961955        450.0656185396195        -6.759370551125576E-7
433.09829522028224        433.09829522028224       -8.904902477720333E-7
-58.5485536889519         -58.548553688951884      -6.626527259222737E-4
-57.65746389855128        -57.65746389855126       -7.489324510155839E-4
406.8683304081414         406.86833040814133       -8.477014138751461E-7
404.86858214497636        404.86858214497636       -8.242390955674591E-7
-56.867996144293265       -56.86799614429326       -8.292248140102319E-4
-55.5392557893947         -55.53925578939469       -9.723239226767665E-4
402.7970809398303         402.79708093983027       -8.194142304155422E-7
373.445285961653          373.445285961653         -9.009890564664676E-7
353.2174518048988         353.21745180489893       -8.901641913679334E-7
-54.301277277296336       -54.30127727729633       -0.001114442641114798
-53.15718891213175        -53.15718891213174       -0.0012531545299409657
330.6845660527718         330.68456605277186       -8.905916166478247E-7
306.9665897844655         306.96658978446555       -8.955408270000092E-7
277.27954199079113        277.27954199079113       -8.984410366102966E-7
275.1343562166617         275.1343562166617        -8.987863123191245E-7
-51.97655618561926        -51.976556185619245      -0.0014035900960985936
-50.21367810834012        -50.21367810834012       -0.0016415521132565269
270.08221772482705        270.08221772482705       -9.00759277128159E-7
243.58141080393062        243.58141080393065       -9.115562405495412E-7
-48.108985031198046       -48.108985031198046      -0.001946069736428865
-46.9402199121527         -46.9402199121527        -0.0021245785680959056
228.66189643082922        228.66189643082922       -9.228530606180036E-7
203.27116418625454        203.27116418625457       -9.277454785297584E-7
-45.85282113115773        -45.85282113115773       -0.0022965659337075067
-43.954191390568226       -43.95419139056822       -0.0026101327397849965
168.03406112212005        168.03406112212005       -7.533655291408432E-7
158.21468719898039        158.2146871989804        -6.118332243503858E-7
-42.580264869301374       -42.580264869301374      -0.0028474562316194683
-40.80379857981617        -40.80379857981617       -0.003167020208785206
138.39434708774576        138.39434708774576       -3.6949932979138873E-7
129.72786698895567        129.7278669889557        -6.851250414802444E-7
-36.80893764229601        -36.80893764229601       -0.00393674366325845
-36.74695136265866        -36.74695136265866       -0.00394926788294177
107.58898346204384        107.58898346204384       -7.048020287119166E-6
116.0331667844436         116.03316678444364       -2.977022293182082E-6
-36.6059657242825         -36.6059657242825        -0.003977762283515319
-32.135448157242124       -32.135448157242124      -0.004924250155772294
96.4231719498061          96.42317194980612        -1.9833554380762716E-5
100.43680637253543        100.43680637253541       -1.3842403995667805E-5
-26.533448177488424       -26.53344817748842       -0.006226343963392891
-26.427837310830913       -26.427837310830917      -0.006252222691017191
-26.955607497141287       -26.955607497141287      -0.006123778196482793
88.68456631592431         88.68456631592431        -3.97177995175351E-5
92.40713233099709         92.40713233099709        -2.8370489417566987E-5
-25.779215819161703       -25.779215819161706      -0.006411387865937493
-20.107201095720335       -20.107201095720335      -0.007871253353826133
82.73599721140184         82.73599721140182        -7.116371024515289E-5
84.24559039504996         84.24559039504994        -6.108193064208226E-5
80.10086890691696         80.10086890691694        -9.582310933697348E-5
-18.61875937812218        -18.61875937812218       -0.00827576492898251
-14.06483437478418        -14.06483437478418       -0.009555647833621072
77.84700151896362         77.84700151896362        -1.2681977288677782E-4
76.73243005239036         76.73243005239037        -1.4793851970897336E-4
74.08036955253587         74.08036955253587        -2.34102187907523E-4
-8.924458954940956        -8.924458954940956       -0.011082034587378038
-7.71906930011159         -7.719069300111589       -0.011452215458699046
73.02494410702587         73.02494410702589        -2.98083192950716E-4
72.2249151693118          72.2249151693118         -3.740883248083965E-4
-6.850962448372406        -6.850962448372406       -0.011722210460680744
-1.4008962952483786       -1.400896295248379       -0.013446534994367834
70.69065173831274         70.69065173831247        -7.344714175337897E-4
0.6592578754771541        0.6592578754771539       -0.014115271680723997
2.990025832958745         2.9900258329587452       -0.014878969686049272
69.67385713906222         69.67385713906222        -0.001288095180485085
6.861078770192652         6.861078770192652        -0.01615901270724388
7.233992746003956         7.233992746003955        -0.01628292180628141
68.70321035826368         68.70321035826366        -0.0020719096455624423
68.70199276155066         68.70199276155064        -0.0020730346799797783
7.53258057223571          7.53258057223571         -0.016382409973303872
12.20192396423005         12.201923964230051       -0.017926620930921747
15.346284307349384        15.346284307349386       -0.018953034547400546
68.70011364229129         68.7001136422913         -0.0020747728076661543
67.52845558787934         67.52845558787934        -0.0032926713494800387
67.07138319743842         67.07138319743842        -0.003837702772421448
16.25542765111318         16.25542765111318        -0.01924759148579394
19.54885241397168         19.548852413971684       -0.020287359450348017
66.0611915856906          66.0611915856906         -0.005159760451966094
65.81231323152755         65.81231323152755        -0.005508621547955442
20.91616292778165         20.91616292778165        -0.02070832319959381
22.96303643752107         22.96303643752107        -0.021320372241235067
64.84816888951465         64.84816888951464        -0.006929591096914161
64.58069434568154         64.58069434568154        -0.007342234529406038
26.694231728251765        26.694231728251765       -0.02237026479547488
27.698330043254728        27.698330043254735       -0.022635751694253102
24.94763915192035         24.94763915192035        -0.021890809576673637
30.119306375762577        30.11930637576258        -0.02323648375212071
30.762922518561524        30.762922518561524       -0.0233868547660976
63.958138458612495        63.9581384586125         -0.008327594599928016
63.30247967933486         63.30247967933486        -0.009398051337487796
62.925182111445906        62.92518211144591        -0.010026746504092032
32.58723129968392         32.58723129968392        -0.023785968611164134
33.45404737560191         33.45404737560191        -0.02396141251778979
62.659753016773465        62.659753016773465       -0.01047362186151186
62.1973223040824          62.1973223040824         -0.011258562927151274
34.10333882319924         34.10333882319924        -0.02408637425261109
35.675058589627845        35.675058589627845       -0.024362225847406015
36.40852532024874         36.40852532024874        -0.024477891833818644
61.80890582131343         61.80890582131344        -0.011923105954449143
61.63691187895354         61.63691187895355        -0.012218471165459448
37.65924172129546         37.65924172129547        -0.024653392341292126
38.484101365424415        38.484101365424415       -0.024753508629108918
61.48345920106388         61.48345920106389        -0.012482413092504198
61.02083404743331         61.02083404743331        -0.013278661736169706
40.002744101990984        40.00274410199098        -0.024900557141468615
40.28009630592684         40.28009630592684        -0.02492239414577146
60.48851614898924         60.488516148989234       -0.01419364393782463
60.44330382172713         60.44330382172711        -0.014271208968707852
60.39452881485143         60.39452881485142        -0.014354820735566572
41.982809359882964        41.982809359882964       -0.025013401231895587
41.319955232075394        41.3199552320754         -0.02498652938378053
59.942180433816205        59.942180433816205       -0.015126592198512761
59.681366247810736        59.68136624781074        -0.01556814562769375
42.255813100850126        42.25581310085013        -0.025021247058341512
43.35532367131995         43.35532367131995        -0.02503102242111662
59.56748785895867         59.56748785895868        -0.015760024312557453
59.14237296797959         59.14237296797959        -0.016469643944283022
44.936787321252076        44.936787321252076       -0.02498035641881246
44.86045324276605         44.86045324276604        -0.024984639058519387
44.97196857173609         44.97196857173609        -0.024978355249088906
59.09552381226392         59.09552381226393        -0.016547241115324223
58.70792100814858         58.707921008148574       -0.017182921646579294
46.39399336012393         46.39399336012393        -0.024856811795018575
46.4323502922224          46.4323502922224         -0.02485252625476079
58.45799551582138         58.45799551582139        -0.01758774428208219
47.55070490861964         47.55070490861964        -0.02469854768152744
47.70644951838134         47.70644951838133        -0.024673003224481797
48.759086862134524        48.759086862134524       -0.024468526349530197
48.81841974586595         48.81841974586595        -0.02445543418921017
48.4896829967109          48.4896829967109         -0.024525983946567936
49.76281249228171         49.762812492281704       -0.024220215118599234
49.943417848635654        49.94341784863565        -0.02416963175569119
50.44082715467552         50.44082715467552        -0.02401963184938093
50.72664536389737         50.72664536389737        -0.023926448571536658
50.84860515093496         50.848605150934965       -0.023885076961253488
51.229819936095446        51.22981993609545        -0.023749095526073613
51.44507264275106         51.44507264275106        -0.02366782369950115
51.75104483655411         51.751044836554115       -0.023546402082231927
52.07463144984466         52.074631449844674       -0.02341018504257698
52.32781975025938         52.32781975025939        -0.02329776561431152
52.63661799164887         52.636617991648876       -0.02315333807847083
52.81761261819137         52.817612618191376       -0.023064851861246485
52.98163210083669         52.98163210083669        -0.022982075116089268
53.21480226568279         53.21480226568279        -0.022860062242898098
53.52231255602018         53.522312556020175       -0.022691024746023747
53.603790006902734        53.60379000690274        -0.022644656678695488
53.65927131293836         53.65927131293835        -0.022612698797986847
53.958314923867576        53.958314923867576       -0.022434717794850626
54.25099575569075         54.25099575569076        -0.02225117820778813
55.15432895960209         55.15432890586537        -0.021644298592192416
54.97319690688326         54.973196906883274       -0.021763241955273183
54.76096391229942         54.76096391229941        -0.021910219650460763
54.529578214639606        54.5295782146396         -0.022067958928810538
54.75948301304709         54.75948301304708        -0.021911243192378915
54.265680644689525        54.26568064468953        -0.022241727888550406
54.25873212833052         54.25873212833053        -0.02224620277885245
54.76019885960136         54.76019885960135        -0.021910748987163733
57.52968308252984         57.529683082529836       -0.019065039943269933
57.436603543057984        57.436603543057984       -0.019199510159821753
57.39150716691998         57.39150716691998        -0.019263621974842333
57.163889042056795        57.163889042056795       -0.019577813630348332
57.008149656610755        57.008149656610755       -0.019783674057089425
56.82334893792797         56.82334893792797        -0.02001836856109725
56.633451779388025        56.63345177938802        -0.020248680962246225
56.435816366940244        56.435816366940244       -0.02047661506272233
56.32566826085186         56.32566826085186        -0.02059842916205413
56.05771841419805         56.05771841419805        -0.020879046737122736
56.11977020014798         56.11977020014799        -0.020816044915179917
55.95847271847666         55.95847271847667        -0.020977314584769775
55.795383786947845        55.795383786947845       -0.021132028994129266
55.55463426026297         55.55463426026297        -0.021344590582614318
55.64365350501217         55.64365350501216        -0.021268246235478582
55.479784491925216        55.479784491925216       -0.021406650654931508
55.32848439849357         55.32848439849357        -0.021525262381354125
