% Model:              Membran2D3D25membranethickness.mph
% Version:            COMSOL 5.6.0.401
% Date:               Jan 4 2025, 21:14
% Dimension:          2
% Nodes:              252
% Expressions:        1
% Description:        Displacement field, Z component
% Length unit:        µm
% cpl1x                   cpl1y                    w (µm) @ memb_thick=2.5, edge_width=200, m_stylus=10, circ_pos=20
15.550805049487165        15.550805049487163       -0.12282811110455563
15.636584274565628        15.636584274565628       -0.12271621856847324
15.851082289708017        15.851082289708017       -0.12244258292349673
15.393333304726765        15.393333304726763       -0.1230253582485528
15.258169974763783        15.258169974763781       -0.12317895832815054
-499.9999999999999        -499.9999999999999       0
-461.2067152521843        -461.20671525218427      -7.106017356264864E-7
-452.4204553688842        -452.4204553688841       -5.991362383378076E-7
-431.5447876735226        -431.5447876735226       -8.983204950230675E-7
-404.838991288963         -404.838991288963        -8.716716658806944E-7
-401.64570269430715       -401.6457026943071       -8.434726528719775E-7
-399.493919985778         -399.493919985778        -8.301593453598073E-7
-359.00585409924906       -359.00585409924906      -8.91626305036602E-7
-348.6244860021648        -348.6244860021649       -8.822818221994728E-7
-300.39085057594815       -300.3908505759482       -8.855207812516437E-7
-299.4376540979375        -299.4376540979375       -8.85213418720003E-7
-298.53403657094134       -298.5340365709413       -8.849997344780941E-7
-250.3955045841206        -250.3955045841206       -8.854223582296579E-7
-225.57002030629616       -225.57002030629616      -8.807810551834882E-7
499.9999999999999         499.9999999999999        1.199895389996905E-36
462.11904772907565        462.1190477290757        -8.005204621005679E-7
-171.4324416577674        -171.4324416577674       -8.306156022742085E-7
-161.32303123321648       -161.3230312332165       -7.989482824774124E-7
-196.98364707219895       -196.98364707219892      -8.710503748550233E-7
450.06561853961955        450.0656185396195        -6.757191707554238E-7
433.09829522028224        433.09829522028224       -8.901862834405922E-7
-151.6015142324374        -151.6015142324374       -7.479015966787282E-7
-129.30148155078248       -129.30148155078246      -5.929116757334396E-7
406.8683304081414         406.86833040814133       -8.471944661546631E-7
404.86858214497636        404.86858214497636       -8.237154643262223E-7
-118.28947935252698       -118.28947935252697      -5.971296397247333E-7
-111.81880255172229       -111.81880255172227      -6.880172228094144E-7
402.7970809398303         402.79708093983027       -8.18864123144886E-7
373.445285961653          373.445285961653         -9.000012566118416E-7
353.2174518048988         353.21745180489893       -8.885771168848935E-7
-106.57061237712182       -106.57061237712182      -8.996967308245969E-7
-100.32237682104027       -100.32237682104025      -1.383642872699327E-6
330.6845660527718         330.68456605277186       -8.879794297679025E-7
306.9665897844655         306.96658978446555       -8.91137233653759E-7
-94.78850254371831        -94.7885025437183        -2.234332321507102E-6
-89.49706506247321        -89.49706506247321       -3.7165760495831804E-6
277.27954199079113        277.27954199079113       -8.894134423806991E-7
275.1343562166617         275.1343562166617        -8.893737679173254E-7
-84.53306774855172        -84.5330677485517        -6.441371203892499E-6
-82.77014234899576        -82.77014234899575       -7.917530315330934E-6
270.08221772482705        270.08221772482705       -8.89837888285806E-7
243.58141080393062        243.58141080393065       -8.913997566642763E-7
228.66189643082922        228.66189643082922       -8.918656299255476E-7
-79.85231213485308        -79.85231213485308       -1.1823162529914913E-5
-77.7946544699767         -77.7946544699767        -1.609520185058209E-5
-74.22390061014687        -74.22390061014687       -3.301859787122586E-5
-76.7860734527808         -76.78607345278081       -1.9081883491114586E-5
203.27116418625454        203.27116418625457       -8.866892564899891E-7
168.03406112212005        168.03406112212005       -7.729378591918162E-7
-72.31220481973702        -72.31220481973702       -6.0360772021198575E-5
-73.22811710475948        -73.22811710475948       -4.373312376535753E-5
158.21468719898039        158.2146871989804        -6.811779995709934E-7
138.39434708774576        138.39434708774576       -4.2215031361722166E-7
129.72786698895567        129.7278669889557        -3.9852516605906477E-7
-70.69065173831274        -70.69065173831254       -1.5437933103909998E-4
116.0331667844436         116.03316678444364       -9.270412505173773E-7
107.58898346204384        107.58898346204384       -2.1723598251037658E-6
-69.7064931659441         -69.7064931659441        -3.0737984097476746E-4
100.43680637253543        100.43680637253541       -4.446969099527557E-6
96.4231719498061          96.42317194980612        -6.53506605839511E-6
-68.7791382629307         -68.7791382629307        -5.338373839510991E-4
-68.6922376999005         -68.6922376999005        -5.589692350857753E-4
92.40713233099709         92.40713233099709        -9.595865302542368E-6
88.68456631592431         88.68456631592431        -1.3752838511942223E-5
-68.58690983204988        -68.58690983204988       -5.902675877583258E-4
-67.5936849673392         -67.59368496733919       -9.308668286096084E-4
84.24559039504996         84.24559039504994        -2.176855436771697E-5
82.73599721140184         82.73599721140182        -2.5590772554919787E-5
-66.49577931315633        -66.49577931315633       -0.0014008869440630609
-66.39304924719235        -66.39304924719235       -0.0014497841710275567
80.10086890691696         80.10086890691694        -3.5191191922564764E-5
77.84700151896362         77.84700151896362        -4.746935215308934E-5
-66.25926112700802        -66.25926112700802       -0.001514688546984854
-65.24433866579791        -65.24433866579791       -0.00205142200042877
76.73243005239036         76.73243005239037        -5.597758285050823E-5
74.08036955253587         74.08036955253587        -9.291728654116392E-5
-64.34287180696606        -64.34287180696606       -0.0025926171797327814
-63.55379176633622        -63.55379176633621       -0.003114498675842923
73.02494410702587         73.02494410702589        -1.223478100115278E-4
72.2249151693118          72.2249151693118         -1.5929236499842656E-4
-62.46875325939483        -62.46875325939482       -0.0039028813835935653
-61.846167768633116       -61.84616776863312       -0.004391282941270802
70.69065173831274         70.69065173831247        -3.571136477876443E-4
-60.97252727123332        -60.97252727123332       -0.005119260453107183
-60.23753874018164        -60.23753874018164       -0.005769364322609719
69.69432880852494         69.69432880852494        -6.795388510713499E-4
-59.92879526460871        -59.92879526460871       -0.006052604181622011
-58.33960721943299        -58.33960721943299       -0.007600624769526808
68.76672888112613         68.76672888112611        -0.001144358500779935
68.67850470602907         68.67850470602907        -0.00119643064891237
-57.09411126207442        -57.09411126207442       -0.008916433479126915
-55.68460606254162        -55.68460606254162       -0.010508604679172945
68.59115014554838         68.59115014554837        -0.0012492278805899017
67.64685924683593         67.64685924683592        -0.0018994268156442016
-53.41630644620743        -53.41630644620743       -0.013287026679788967
-52.64497682136737        -52.644976821367365      -0.014290608884189227
67.0029873185887          67.00298731858871        -0.002424577589470782
66.80407367857441         66.80407367857441        -0.002599872935082019
-51.80328379717052        -51.80328379717052       -0.015417704622145798
-49.33474613819289        -49.3347461381929        -0.018904287680280105
65.7999706276938          65.7999706276938         -0.0035755002331733445
65.50422329007735         65.50422329007735        -0.003891222762929675
-46.740136918946845       -46.740136918946845      -0.022843515217135228
-45.511255970632206       -45.511255970632206      -0.024801492890863055
-44.99222665583114        -44.992226655831146      -0.025646447576566134
64.37763726362688         64.37763726362688        -0.005206374535378284
63.95664539311449         63.95664539311449        -0.005742623678501923
-41.248745309530044       -41.24874530953005       -0.032002287086960506
-41.05372106103418        -41.05372106103418       -0.03234651276760846
63.109734299886796        63.109734299886796       -0.006891734144936157
61.984213169953165        61.98421316995316        -0.00855849055083537
-40.70436639253633        -40.704366392536336      -0.0329654107585084
-37.70858322042261        -37.708583220422604      -0.038412894180054606
61.142495682118735        61.142495682118735       -0.009904723521231852
59.92804459613753         59.92804459613754        -0.011988381854327951
-34.369369061123095       -34.36936906112308       -0.04475711015593322
-33.326306405399          -33.326306405398995      -0.04679471917451362
57.64132997103155         57.64132997103156        -0.016332243070411142
57.538150428035436        57.53815042803544        -0.016540640112399103
-31.31468285457276        -31.31468285457275       -0.05078186974969285
-28.06183568039183        -28.06183568039183       -0.057371299389699745
-26.824167684922827       -26.82416768492283       -0.05992356473181595
57.49565781117738         57.49565781117739        -0.016626759400773558
55.23972814424349         55.239728144243486       -0.02142459821236253
-22.220351367279672       -22.220351367279676      -0.06952446079938147
-21.842090113468046       -21.84209011346805       -0.07032228231554187
54.46207972734385         54.46207972734385        -0.02317906393503551
52.36147337849547         52.361473378495475       -0.028142646805773247
-21.013160220926505       -21.013160220926505      -0.07206723771250619
-17.411528613124574       -17.411528613124577      -0.07963426624158043
51.97103291366726         51.971032913667266       -0.029100357738595133
50.26091208519756         50.260912085197575       -0.033405740130981444
-15.458805051241704       -15.458805051241704      -0.08371711006721692
-13.06483322441925        -13.06483322441925       -0.08866508395763206
47.45165807890706         47.45165807890706        -0.04083277716816305
47.32633052060812         47.326330520608124       -0.04117372325816533
-10.23296111043006        -10.23296111043006       -0.09439994783156061
-10.03165129674923        -10.03165129674923       -0.09480265046123398
47.20782296376891         47.20782296376891        -0.04149676269893987
44.45965543066148         44.45965543066148        -0.049132216788738046
-9.64665593802957         -9.64665593802957        -0.09556807659710793
-7.131439738817376        -7.131439738817377       -0.1004598197574166
41.92685128444555         41.926851284445554       -0.056379622428790174
40.94786446734738         40.94786446734738        -0.059223397331752095
39.98422952321007         39.98422952321006        -0.06203720874195142
-6.0095503709822555       -6.009550370982257       -0.10257639533303343
-4.571889302820258        -4.571889302820258       -0.10521710716095249
-2.931300555668643        -2.931300555668643       -0.10811776002571534
-2.5979224740473583       -2.5979224740473583      -0.10869240231617947
37.886490615858264        37.886490615858264       -0.06818707139540925
36.545051438502185        36.545051438502185       -0.07212696165743451
-1.7603438616614462       -1.7603438616614462      -0.11010691540884077
-0.4857002691805458       -0.48570026918054565     -0.11218124252627976
35.279325183829194        35.279325183829194       -0.07583738949556884
33.86741414566002         33.86741414566002        -0.07995363299864865
0.27421511617227345       0.2742151161722734       -0.1133698871182291
1.1745546541595158        1.1745546541595155       -0.114726515018971
2.1578263066324954        2.157826306632495        -0.11613988568668945
33.045577999790765        33.045577999790765       -0.08233489534629865
31.5511180735374          31.551118073537396       -0.08662040274062663
2.8411342252937235        2.841134225293724        -0.11707714805570514
3.5492296065877214        3.549229606587722        -0.1180059638922652
4.091968091872372         4.0919680918723715       -0.1186874937087851
31.01627950925957         31.01627950925957        -0.08813935120029309
29.35011118237447         29.350111182374466       -0.09279884391669942
4.5152984154419           4.515298415441901        -0.11919984573685655
5.179760310723543         5.179760310723543        -0.1199678678869801
5.541557904130928         5.541557904130928        -0.12036691941135041
28.95311574978844         28.95311574978844        -0.09389303344613033
27.740016366912602        27.740016366912606       -0.09718394688675878
27.27786173484258         27.27786173484258        -0.09841712235360449
27.140643777518306        27.140643777518306       -0.09878108394018226
6.089705106020221         6.0897051060202205       -0.120944322202557
6.389829235919876         6.389829235919876        -0.12124616766163782
25.822432034126486        25.82243203412648        -0.10221341221882209
25.763526171429813        25.76352617142981        -0.10236417112511681
25.67637447561145         25.676374475611446       -0.10258678248849458
6.820949029244451         6.820949029244451        -0.12166113069906645
7.224064638038223         7.224064638038223        -0.12202882212048048
7.782255009683038         7.782255009683038        -0.12250369478451509
7.979172722454301         7.979172722454299        -0.12266155030011301
24.40632033710021         24.40632033710021        -0.10576294708146414
23.846980525409272        23.846980525409272       -0.10712047663861812
8.694363987960354         8.694363987960356        -0.12318924274210169
8.69829899646298          8.69829899646298         -0.12319194914814557
23.342238908085402        23.342238908085406       -0.10832168390079586
22.556585956413436        22.55658595641344        -0.11014329080985089
22.441271319061453        22.441271319061453       -0.11040563479944238
22.318881966853237        22.31888196685324        -0.11068255777051612
8.705045096531649         8.705045096531649        -0.12319657949950798
9.32825432898412          9.32825432898412         -0.12359444025830955
21.531533337523012        21.531533337523015       -0.11242485867866381
21.094439710441655        21.094439710441655       -0.11336194716980576
20.802797255762812        20.802797255762812       -0.11397471243395861
9.629427752035523         9.629427752035525        -0.12376514734442007
9.872075408861948         9.87207540886195         -0.12389204551778876
10.203638238299561        10.203638238299561       -0.12404940608095717
20.29667223758038         20.29667223758038        -0.11501274856574889
20.066892474584417        20.066892474584417       -0.11547325603387226
10.394530487427435        10.394530487427435       -0.12413146659832526
10.549397991100111        10.549397991100111       -0.12419332566065037
10.829568667985443        10.829568667985443       -0.1242940691739784
19.552012428520495        19.552012428520495       -0.11647883735730402
19.349571882732725        19.349571882732725       -0.11686412150149145
11.145215757905866        11.145215757905866       -0.12438994191979351
11.20628003895973         11.206280038959726       -0.12440630369966552
18.905582300199917        18.905582300199917       -0.1176878294692372
18.773284663478233        18.773284663478233       -0.117927604832869
11.257940641502003        11.257940641502001       -0.12441958042355368
11.552679857478651        11.55267985747865        -0.12448503374504846
18.075931753574174        18.075931753574174       -0.11914487872662158
18.052519101598396        18.052519101598396       -0.1191843940376474
11.834502673512258        11.83450267351226        -0.12453121026030767
11.843880652786778        11.843880652786778       -0.12453247209870744
18.01796317926182         18.017963179261816       -0.11924252359582443
17.491189135221987        17.491189135221983       -0.12010227139309111
11.853033783132352        11.853033783132352       -0.12453368536086717
12.111673266053145        12.111673266053145       -0.12456092220538462
17.096408720498964        17.096408720498964       -0.12071347696659002
17.06625591556095         17.06625591556095        -0.12075897066404816
12.337336437483692        12.337336437483692       -0.12457426054010128
12.337418402726396        12.337418402726398       -0.12457426379112664
12.33750762496533         12.337507624965331       -0.12457426717510633
16.680286754592196        16.680286754592196       -0.12132528696479047
17.034733769852163        17.034733769852167       -0.12080634708991027
12.549955231660942        12.549955231660942       -0.12457999708729711
12.727922088407151        12.727922034674629       -0.12458779094670526
16.254468080138174        16.25446808013817        -0.12191544824184303
16.389744179799905        16.3897441797999         -0.12173185531356291
16.085848453031495        16.085848453031495       -0.1221392295122885
12.90069592497348         12.900695924973476       -0.12458760643641258
13.051199070489997        13.051199070489997       -0.12456985121788516
13.124850022980507        13.124850022980507       -0.12455699274144705
13.218317707872362        13.218317707872362       -0.12453713750478428
13.37616802158619         13.37616802158619        -0.12449488484567521
14.965344683813925        14.965344683813923       -0.12348275631972402
15.00995715314291         15.00995715314291        -0.12343899283720995
15.1030025799938          15.103002579993799       -0.12334480897684519
13.53091818559584         13.530918185595837       -0.12444306449573873
13.638072303932898        13.638072303932896       -0.12440123318634896
13.703919052584181        13.70391905258418        -0.12437313139807846
14.595085234180456        14.595085234180456       -0.1238135442723941
14.739303581068476        14.739303581068476       -0.12369160022699004
13.904250349859224        13.904250349859225       -0.12427642483921408
14.01509218579534         14.015092185795343       -0.12421566443566462
14.209471683710579        14.209471683710579       -0.12409664999790289
14.40818273036741         14.40818273036741        -0.12395856225304477
